<?xml version="1.0" encoding="UTF-8"?>

<!-- generated on 2025-09-17 20:41:30 by Eclipse SUMO GUI Version 1.23.1
<sumoConfiguration xmlns:xsi="http://www.w3.org/2001/XMLSchema-instance" xsi:noNamespaceSchemaLocation="http://sumo.dlr.de/xsd/sumoConfiguration.xsd">

    <input>
        <net-file value="E:\LET ME COOK\REL301m\dqn_traffic_project\sumo_files\cross.net.xml"/>
        <route-files value="E:\LET ME COOK\REL301m\dqn_traffic_project\sumo_files\cross.rou_kb1.xml"/>
    </input>

    <output>
        <tripinfo-output value="E:\LET ME COOK\REL301m\dqn_traffic_project\sumo_files\tripinfo.xml"/>
    </output>

    <time>
        <begin value="0"/>
        <end value="3600"/>
    </time>

    <processing>
        <time-to-teleport value="-1"/>
    </processing>

    <traci_server>
        <remote-port value="52772"/>
    </traci_server>

</sumoConfiguration>
-->

<tripinfos xmlns:xsi="http://www.w3.org/2001/XMLSchema-instance" xsi:noNamespaceSchemaLocation="http://sumo.dlr.de/xsd/tripinfo_file.xsd">
    <tripinfo id="E1_straight_car.0" depart="0.00" departLane="E1_0" departPos="5.10" departSpeed="0.00" departDelay="0.00" arrival="79.00" arrivalLane="J1W_0" arrivalPos="486.40" arrivalSpeed="12.78" duration="79.00" routeLength="994.90" waitingTime="0.00" waitingCount="0" stopTime="0.00" timeLoss="6.58" rerouteNo="0" devices="tripinfo_E1_straight_car.0" vType="car" speedFactor="1.06" vaporized=""/>
    <tripinfo id="N1_right_car.0" depart="6.00" departLane="N1_0" departPos="5.10" departSpeed="0.00" departDelay="6.00" arrival="88.00" arrivalLane="J1W_0" arrivalPos="486.40" arrivalSpeed="13.10" duration="82.00" routeLength="976.73" waitingTime="0.00" waitingCount="0" stopTime="0.00" timeLoss="10.08" rerouteNo="0" devices="tripinfo_N1_right_car.0" vType="car" speedFactor="1.02" vaporized=""/>
    <tripinfo id="S1_straight_car.0" depart="0.00" departLane="S1_0" departPos="5.10" departSpeed="0.00" departDelay="0.00" arrival="88.00" arrivalLane="J1N_0" arrivalPos="486.40" arrivalSpeed="12.71" duration="88.00" routeLength="994.90" waitingTime="0.00" waitingCount="0" stopTime="0.00" timeLoss="12.23" rerouteNo="0" devices="tripinfo_S1_straight_car.0" vType="car" speedFactor="0.95" vaporized=""/>
    <tripinfo id="N1_straight_car.0" depart="0.00" departLane="N1_0" departPos="5.10" departSpeed="0.00" departDelay="0.00" arrival="89.00" arrivalLane="J1S_0" arrivalPos="486.40" arrivalSpeed="12.16" duration="89.00" routeLength="994.90" waitingTime="1.00" waitingCount="1" stopTime="0.00" timeLoss="12.34" rerouteNo="0" devices="tripinfo_N1_straight_car.0" vType="car" speedFactor="0.94" vaporized=""/>
    <tripinfo id="N1_left_car.0" depart="3.00" departLane="N1_0" departPos="5.10" departSpeed="0.00" departDelay="3.00" arrival="89.00" arrivalLane="J1E_0" arrivalPos="486.40" arrivalSpeed="13.78" duration="86.00" routeLength="992.21" waitingTime="2.00" waitingCount="1" stopTime="0.00" timeLoss="14.09" rerouteNo="0" devices="tripinfo_N1_left_car.0" vType="car" speedFactor="1.16" vaporized=""/>
    <tripinfo id="S1_left_car.0" depart="3.00" departLane="S1_0" departPos="5.10" departSpeed="0.00" departDelay="3.00" arrival="91.00" arrivalLane="J1W_0" arrivalPos="486.40" arrivalSpeed="13.41" duration="88.00" routeLength="992.21" waitingTime="3.00" waitingCount="1" stopTime="0.00" timeLoss="15.62" rerouteNo="0" devices="tripinfo_S1_left_car.0" vType="car" speedFactor="1.13" vaporized=""/>
    <tripinfo id="S1_right_car.0" depart="6.00" departLane="S1_0" departPos="5.10" departSpeed="0.00" departDelay="6.00" arrival="91.00" arrivalLane="J1E_0" arrivalPos="486.40" arrivalSpeed="12.05" duration="85.00" routeLength="976.73" waitingTime="0.00" waitingCount="0" stopTime="0.00" timeLoss="8.48" rerouteNo="0" devices="tripinfo_S1_right_car.0" vType="car" speedFactor="0.93" vaporized=""/>
    <tripinfo id="W1_right_car.0" depart="6.00" departLane="W1_0" departPos="5.10" departSpeed="0.00" departDelay="6.00" arrival="96.00" arrivalLane="J1N_1" arrivalPos="486.40" arrivalSpeed="13.27" duration="90.00" routeLength="992.21" waitingTime="5.00" waitingCount="1" stopTime="0.00" timeLoss="17.40" rerouteNo="0" devices="tripinfo_W1_right_car.0" vType="car" speedFactor="1.03" vaporized=""/>
    <tripinfo id="E1_left_car.0" depart="3.00" departLane="E1_0" departPos="5.10" departSpeed="0.00" departDelay="3.00" arrival="97.00" arrivalLane="J1N_0" arrivalPos="486.40" arrivalSpeed="12.43" duration="94.00" routeLength="976.73" waitingTime="7.00" waitingCount="1" stopTime="0.00" timeLoss="17.83" rerouteNo="0" devices="tripinfo_E1_left_car.0" vType="car" speedFactor="0.94" vaporized=""/>
    <tripinfo id="W1_left_car.0" depart="3.00" departLane="W1_0" departPos="5.10" departSpeed="0.00" departDelay="3.00" arrival="97.00" arrivalLane="J1S_0" arrivalPos="486.40" arrivalSpeed="12.75" duration="94.00" routeLength="976.73" waitingTime="8.00" waitingCount="1" stopTime="0.00" timeLoss="22.37" rerouteNo="0" devices="tripinfo_W1_left_car.0" vType="car" speedFactor="1.09" vaporized=""/>
    <tripinfo id="S1_straight_motor.0" depart="27.00" departLane="S1_0" departPos="2.60" departSpeed="0.00" departDelay="27.00" arrival="102.00" arrivalLane="J1N_0" arrivalPos="486.40" arrivalSpeed="15.62" duration="75.00" routeLength="997.40" waitingTime="0.00" waitingCount="0" stopTime="0.00" timeLoss="13.55" rerouteNo="0" devices="tripinfo_S1_straight_motor.0" vType="motorcycle" speedFactor="1.17" vaporized=""/>
    <tripinfo id="W1_straight_car.0" depart="0.00" departLane="W1_0" departPos="5.10" departSpeed="0.00" departDelay="0.00" arrival="103.00" arrivalLane="J1E_0" arrivalPos="486.40" arrivalSpeed="11.31" duration="103.00" routeLength="994.90" waitingTime="8.00" waitingCount="1" stopTime="0.00" timeLoss="18.49" rerouteNo="0" devices="tripinfo_W1_straight_car.0" vType="car" speedFactor="0.86" vaporized=""/>
    <tripinfo id="E1_right_car.0" depart="6.00" departLane="E1_0" departPos="5.10" departSpeed="0.00" departDelay="6.00" arrival="106.00" arrivalLane="J1S_0" arrivalPos="486.40" arrivalSpeed="13.43" duration="100.00" routeLength="992.21" waitingTime="15.00" waitingCount="2" stopTime="0.00" timeLoss="27.11" rerouteNo="0" devices="tripinfo_E1_right_car.0" vType="car" speedFactor="1.01" vaporized=""/>
    <tripinfo id="E1_straight_truck.0" depart="10.00" departLane="E1_0" departPos="15.10" departSpeed="0.00" departDelay="10.00" arrival="108.00" arrivalLane="J1W_0" arrivalPos="486.40" arrivalSpeed="10.92" duration="98.00" routeLength="984.90" waitingTime="0.00" waitingCount="0" stopTime="0.00" timeLoss="8.95" rerouteNo="0" devices="tripinfo_E1_straight_truck.0" vType="truck" speedFactor="1.08" vaporized=""/>
    <tripinfo id="W1_straight_truck.0" depart="10.00" departLane="W1_0" departPos="15.10" departSpeed="0.00" departDelay="10.00" arrival="108.00" arrivalLane="J1E_0" arrivalPos="486.40" arrivalSpeed="10.74" duration="98.00" routeLength="984.90" waitingTime="0.00" waitingCount="0" stopTime="0.00" timeLoss="9.14" rerouteNo="0" devices="tripinfo_W1_straight_truck.0" vType="truck" speedFactor="1.05" vaporized=""/>
    <tripinfo id="N1_straight_truck.0" depart="10.00" departLane="N1_0" departPos="15.10" departSpeed="0.00" departDelay="10.00" arrival="119.00" arrivalLane="J1S_0" arrivalPos="486.40" arrivalSpeed="10.95" duration="109.00" routeLength="984.90" waitingTime="1.00" waitingCount="1" stopTime="0.00" timeLoss="19.44" rerouteNo="0" devices="tripinfo_N1_straight_truck.0" vType="truck" speedFactor="1.01" vaporized=""/>
    <tripinfo id="S1_straight_truck.0" depart="10.00" departLane="S1_0" departPos="15.10" departSpeed="0.00" departDelay="10.00" arrival="119.00" arrivalLane="J1N_0" arrivalPos="486.40" arrivalSpeed="10.89" duration="109.00" routeLength="984.90" waitingTime="1.00" waitingCount="1" stopTime="0.00" timeLoss="19.42" rerouteNo="0" devices="tripinfo_S1_straight_truck.0" vType="truck" speedFactor="1.18" vaporized=""/>
    <tripinfo id="E1_straight_motor.0" depart="26.00" departLane="E1_0" departPos="2.60" departSpeed="0.00" departDelay="26.00" arrival="121.00" arrivalLane="J1W_0" arrivalPos="486.40" arrivalSpeed="13.27" duration="95.00" routeLength="997.40" waitingTime="10.00" waitingCount="2" stopTime="0.00" timeLoss="26.30" rerouteNo="0" devices="tripinfo_E1_straight_motor.0" vType="motorcycle" speedFactor="1.05" vaporized=""/>
    <tripinfo id="W1_left_motor.1" depart="46.00" departLane="W1_0" departPos="2.60" departSpeed="0.00" departDelay="16.97" arrival="123.00" arrivalLane="J1S_2" arrivalPos="486.40" arrivalSpeed="14.47" duration="77.00" routeLength="979.23" waitingTime="0.00" waitingCount="0" stopTime="0.00" timeLoss="13.36" rerouteNo="0" devices="tripinfo_W1_left_motor.1" vType="motorcycle" speedFactor="1.12" vaporized=""/>
    <tripinfo id="E1_straight_car.1" depart="34.00" departLane="E1_0" departPos="5.10" departSpeed="0.00" departDelay="24.55" arrival="124.00" arrivalLane="J1W_0" arrivalPos="486.40" arrivalSpeed="12.71" duration="90.00" routeLength="994.90" waitingTime="0.00" waitingCount="0" stopTime="0.00" timeLoss="15.84" rerouteNo="0" devices="tripinfo_E1_straight_car.1" vType="car" speedFactor="0.97" vaporized=""/>
    <tripinfo id="W1_straight_motor.0" depart="28.00" departLane="W1_0" departPos="2.60" departSpeed="0.00" departDelay="28.00" arrival="126.00" arrivalLane="J1E_0" arrivalPos="486.40" arrivalSpeed="12.50" duration="98.00" routeLength="997.40" waitingTime="4.00" waitingCount="2" stopTime="0.00" timeLoss="20.00" rerouteNo="0" devices="tripinfo_W1_straight_motor.0" vType="motorcycle" speedFactor="0.93" vaporized=""/>
    <tripinfo id="E1_left_truck.0" depart="16.00" departLane="E1_0" departPos="15.10" departSpeed="0.00" departDelay="16.00" arrival="127.00" arrivalLane="J1N_0" arrivalPos="486.40" arrivalSpeed="11.11" duration="111.00" routeLength="966.73" waitingTime="5.00" waitingCount="1" stopTime="0.00" timeLoss="22.85" rerouteNo="0" devices="tripinfo_E1_left_truck.0" vType="truck" speedFactor="1.03" vaporized=""/>
    <tripinfo id="E1_left_motor.0" depart="29.00" departLane="E1_0" departPos="2.60" departSpeed="0.00" departDelay="29.00" arrival="127.00" arrivalLane="J1N_1" arrivalPos="486.40" arrivalSpeed="10.97" duration="98.00" routeLength="979.23" waitingTime="2.00" waitingCount="1" stopTime="0.00" timeLoss="17.23" rerouteNo="0" devices="tripinfo_E1_left_motor.0" vType="motorcycle" speedFactor="0.89" vaporized=""/>
    <tripinfo id="E1_left_motor.1" depart="45.00" departLane="E1_0" departPos="2.60" departSpeed="0.00" departDelay="30.48" arrival="127.00" arrivalLane="J1N_2" arrivalPos="486.40" arrivalSpeed="13.78" duration="82.00" routeLength="979.23" waitingTime="0.00" waitingCount="0" stopTime="0.00" timeLoss="12.88" rerouteNo="0" devices="tripinfo_E1_left_motor.1" vType="motorcycle" speedFactor="1.03" vaporized=""/>
    <tripinfo id="W1_left_truck.0" depart="17.00" departLane="W1_0" departPos="15.10" departSpeed="0.00" departDelay="17.00" arrival="128.00" arrivalLane="J1S_0" arrivalPos="486.40" arrivalSpeed="11.11" duration="111.00" routeLength="966.73" waitingTime="4.00" waitingCount="1" stopTime="0.00" timeLoss="23.18" rerouteNo="0" devices="tripinfo_W1_left_truck.0" vType="truck" speedFactor="1.12" vaporized=""/>
    <tripinfo id="N1_left_truck.0" depart="17.00" departLane="N1_0" departPos="15.10" departSpeed="0.00" departDelay="17.00" arrival="128.00" arrivalLane="J1E_0" arrivalPos="486.40" arrivalSpeed="10.85" duration="111.00" routeLength="982.21" waitingTime="6.00" waitingCount="1" stopTime="0.00" timeLoss="22.16" rerouteNo="0" devices="tripinfo_N1_left_truck.0" vType="truck" speedFactor="0.97" vaporized=""/>
    <tripinfo id="S1_left_truck.0" depart="16.00" departLane="S1_0" departPos="15.10" departSpeed="0.00" departDelay="16.00" arrival="128.00" arrivalLane="J1W_0" arrivalPos="486.40" arrivalSpeed="10.98" duration="112.00" routeLength="982.21" waitingTime="5.00" waitingCount="1" stopTime="0.00" timeLoss="22.92" rerouteNo="0" devices="tripinfo_S1_left_truck.0" vType="truck" speedFactor="1.15" vaporized=""/>
    <tripinfo id="W1_left_motor.0" depart="31.00" departLane="W1_0" departPos="2.60" departSpeed="0.00" departDelay="31.00" arrival="129.00" arrivalLane="J1S_1" arrivalPos="486.40" arrivalSpeed="10.97" duration="98.00" routeLength="979.23" waitingTime="0.00" waitingCount="0" stopTime="0.00" timeLoss="16.41" rerouteNo="0" devices="tripinfo_W1_left_motor.0" vType="motorcycle" speedFactor="0.88" vaporized=""/>
    <tripinfo id="E1_left_car.1" depart="37.00" departLane="E1_0" departPos="5.10" departSpeed="0.00" departDelay="27.55" arrival="129.00" arrivalLane="J1N_1" arrivalPos="486.40" arrivalSpeed="13.39" duration="92.00" routeLength="976.73" waitingTime="0.00" waitingCount="0" stopTime="0.00" timeLoss="20.48" rerouteNo="0" devices="tripinfo_E1_left_car.1" vType="car" speedFactor="1.18" vaporized=""/>
    <tripinfo id="E1_straight_car.2" depart="50.00" departLane="E1_0" departPos="5.10" departSpeed="0.00" departDelay="31.10" arrival="129.00" arrivalLane="J1W_0" arrivalPos="486.40" arrivalSpeed="13.01" duration="79.00" routeLength="994.90" waitingTime="0.00" waitingCount="0" stopTime="0.00" timeLoss="6.78" rerouteNo="0" devices="tripinfo_E1_straight_car.2" vType="car" speedFactor="1.09" vaporized=""/>
    <tripinfo id="E1_straight_motor.1" depart="42.00" departLane="E1_0" departPos="2.60" departSpeed="0.00" departDelay="27.48" arrival="130.00" arrivalLane="J1W_0" arrivalPos="486.40" arrivalSpeed="12.46" duration="88.00" routeLength="997.40" waitingTime="0.00" waitingCount="0" stopTime="0.00" timeLoss="8.23" rerouteNo="0" devices="tripinfo_E1_straight_motor.1" vType="motorcycle" speedFactor="0.90" vaporized=""/>
    <tripinfo id="W1_straight_car.1" depart="35.00" departLane="W1_0" departPos="5.10" departSpeed="0.00" departDelay="16.05" arrival="130.00" arrivalLane="J1E_1" arrivalPos="486.40" arrivalSpeed="13.83" duration="95.00" routeLength="994.90" waitingTime="0.00" waitingCount="0" stopTime="0.00" timeLoss="22.41" rerouteNo="0" devices="tripinfo_W1_straight_car.1" vType="car" speedFactor="1.09" vaporized=""/>
    <tripinfo id="W1_left_car.1" depart="38.00" departLane="W1_0" departPos="5.10" departSpeed="0.00" departDelay="19.05" arrival="131.00" arrivalLane="J1S_1" arrivalPos="486.40" arrivalSpeed="13.66" duration="93.00" routeLength="976.73" waitingTime="0.00" waitingCount="0" stopTime="0.00" timeLoss="20.74" rerouteNo="0" devices="tripinfo_W1_left_car.1" vType="car" speedFactor="1.00" vaporized=""/>
    <tripinfo id="W1_straight_motor.1" depart="44.00" departLane="W1_0" departPos="2.60" departSpeed="0.00" departDelay="14.97" arrival="131.00" arrivalLane="J1E_0" arrivalPos="486.40" arrivalSpeed="13.59" duration="87.00" routeLength="997.40" waitingTime="0.00" waitingCount="0" stopTime="0.00" timeLoss="20.57" rerouteNo="0" devices="tripinfo_W1_straight_motor.1" vType="motorcycle" speedFactor="1.08" vaporized=""/>
    <tripinfo id="E1_left_car.2" depart="53.00" departLane="E1_0" departPos="5.10" departSpeed="0.00" departDelay="34.10" arrival="133.00" arrivalLane="J1N_0" arrivalPos="486.40" arrivalSpeed="12.92" duration="80.00" routeLength="976.73" waitingTime="0.00" waitingCount="0" stopTime="0.00" timeLoss="7.92" rerouteNo="0" devices="tripinfo_E1_left_car.2" vType="car" speedFactor="1.04" vaporized=""/>
    <tripinfo id="W1_straight_car.2" depart="51.00" departLane="W1_0" departPos="5.10" departSpeed="0.00" departDelay="13.11" arrival="134.00" arrivalLane="J1E_0" arrivalPos="486.40" arrivalSpeed="12.89" duration="83.00" routeLength="994.90" waitingTime="0.00" waitingCount="0" stopTime="0.00" timeLoss="6.01" rerouteNo="0" devices="tripinfo_W1_straight_car.2" vType="car" speedFactor="0.94" vaporized=""/>
    <tripinfo id="W1_left_car.2" depart="54.00" departLane="W1_0" departPos="5.10" departSpeed="0.00" departDelay="16.11" arrival="134.00" arrivalLane="J1S_0" arrivalPos="486.40" arrivalSpeed="13.35" duration="80.00" routeLength="976.73" waitingTime="0.00" waitingCount="0" stopTime="0.00" timeLoss="8.42" rerouteNo="0" devices="tripinfo_W1_left_car.2" vType="car" speedFactor="1.06" vaporized=""/>
    <tripinfo id="E1_straight_motor.2" depart="67.00" departLane="E1_0" departPos="2.60" departSpeed="0.00" departDelay="37.97" arrival="136.00" arrivalLane="J1W_1" arrivalPos="486.40" arrivalSpeed="15.59" duration="69.00" routeLength="997.40" waitingTime="0.00" waitingCount="0" stopTime="0.00" timeLoss="5.90" rerouteNo="0" devices="tripinfo_E1_straight_motor.2" vType="motorcycle" speedFactor="1.14" vaporized=""/>
    <tripinfo id="E1_straight_car.3" depart="59.00" departLane="E1_0" departPos="5.10" departSpeed="0.00" departDelay="30.65" arrival="137.00" arrivalLane="J1W_0" arrivalPos="486.40" arrivalSpeed="13.23" duration="78.00" routeLength="994.90" waitingTime="0.00" waitingCount="0" stopTime="0.00" timeLoss="6.30" rerouteNo="0" devices="tripinfo_E1_straight_car.3" vType="car" speedFactor="1.00" vaporized=""/>
    <tripinfo id="W1_straight_car.3" depart="60.00" departLane="W1_0" departPos="5.10" departSpeed="0.00" departDelay="3.16" arrival="139.00" arrivalLane="J1E_0" arrivalPos="486.40" arrivalSpeed="13.81" duration="79.00" routeLength="994.90" waitingTime="0.00" waitingCount="0" stopTime="0.00" timeLoss="6.51" rerouteNo="0" devices="tripinfo_W1_straight_car.3" vType="car" speedFactor="1.02" vaporized=""/>
    <tripinfo id="E1_left_car.3" depart="62.00" departLane="E1_0" departPos="5.10" departSpeed="0.00" departDelay="33.65" arrival="142.00" arrivalLane="J1N_0" arrivalPos="486.40" arrivalSpeed="13.03" duration="80.00" routeLength="976.73" waitingTime="0.00" waitingCount="0" stopTime="0.00" timeLoss="8.57" rerouteNo="0" devices="tripinfo_E1_left_car.3" vType="car" speedFactor="1.00" vaporized=""/>
    <tripinfo id="S1_right_motor.0" depart="32.00" departLane="S1_0" departPos="2.60" departSpeed="0.00" departDelay="32.00" arrival="151.00" arrivalLane="J1E_0" arrivalPos="486.40" arrivalSpeed="12.78" duration="119.00" routeLength="979.23" waitingTime="29.00" waitingCount="1" stopTime="0.00" timeLoss="48.88" rerouteNo="0" devices="tripinfo_S1_right_motor.0" vType="motorcycle" speedFactor="1.02" vaporized=""/>
    <tripinfo id="S1_straight_car.1" depart="35.00" departLane="S1_0" departPos="5.10" departSpeed="0.00" departDelay="16.05" arrival="154.00" arrivalLane="J1N_0" arrivalPos="486.40" arrivalSpeed="13.39" duration="119.00" routeLength="994.90" waitingTime="31.00" waitingCount="2" stopTime="0.00" timeLoss="46.50" rerouteNo="0" devices="tripinfo_S1_straight_car.1" vType="car" speedFactor="1.17" vaporized=""/>
    <tripinfo id="S1_right_car.1" depart="41.00" departLane="S1_0" departPos="5.10" departSpeed="0.00" departDelay="22.05" arrival="154.00" arrivalLane="J1E_1" arrivalPos="486.40" arrivalSpeed="12.95" duration="113.00" routeLength="976.73" waitingTime="24.00" waitingCount="1" stopTime="0.00" timeLoss="41.39" rerouteNo="0" devices="tripinfo_S1_right_car.1" vType="car" speedFactor="1.10" vaporized=""/>
    <tripinfo id="N1_right_motor.0" depart="33.00" departLane="N1_0" departPos="2.60" departSpeed="0.00" departDelay="33.00" arrival="156.00" arrivalLane="J1W_0" arrivalPos="486.40" arrivalSpeed="11.41" duration="123.00" routeLength="979.23" waitingTime="28.00" waitingCount="1" stopTime="0.00" timeLoss="44.54" rerouteNo="0" devices="tripinfo_N1_right_motor.0" vType="motorcycle" speedFactor="0.92" vaporized=""/>
    <tripinfo id="S1_right_truck.0" depart="23.00" departLane="S1_0" departPos="15.10" departSpeed="0.00" departDelay="23.00" arrival="157.00" arrivalLane="J1E_0" arrivalPos="486.40" arrivalSpeed="10.80" duration="134.00" routeLength="966.73" waitingTime="30.00" waitingCount="1" stopTime="0.00" timeLoss="46.15" rerouteNo="0" devices="tripinfo_S1_right_truck.0" vType="truck" speedFactor="1.01" vaporized=""/>
    <tripinfo id="S1_left_motor.0" depart="30.00" departLane="S1_0" departPos="2.60" departSpeed="0.00" departDelay="30.00" arrival="157.00" arrivalLane="J1W_1" arrivalPos="486.40" arrivalSpeed="13.41" duration="127.00" routeLength="994.71" waitingTime="33.00" waitingCount="3" stopTime="0.00" timeLoss="54.50" rerouteNo="0" devices="tripinfo_S1_left_motor.0" vType="motorcycle" speedFactor="0.99" vaporized=""/>
    <tripinfo id="E1_left_motor.2" depart="70.00" departLane="E1_0" departPos="2.60" departSpeed="0.00" departDelay="40.97" arrival="157.00" arrivalLane="J1N_0" arrivalPos="486.40" arrivalSpeed="13.23" duration="87.00" routeLength="979.23" waitingTime="3.00" waitingCount="1" stopTime="0.00" timeLoss="16.77" rerouteNo="0" devices="tripinfo_E1_left_motor.2" vType="motorcycle" speedFactor="1.02" vaporized=""/>
    <tripinfo id="E1_right_truck.0" depart="23.00" departLane="E1_0" departPos="15.10" departSpeed="0.00" departDelay="23.00" arrival="158.00" arrivalLane="J1S_0" arrivalPos="486.40" arrivalSpeed="10.93" duration="135.00" routeLength="982.21" waitingTime="27.00" waitingCount="1" stopTime="0.00" timeLoss="45.46" rerouteNo="0" devices="tripinfo_E1_right_truck.0" vType="truck" speedFactor="0.83" vaporized=""/>
    <tripinfo id="W1_right_truck.0" depart="24.00" departLane="W1_0" departPos="15.10" departSpeed="0.00" departDelay="24.00" arrival="158.00" arrivalLane="J1N_1" arrivalPos="486.40" arrivalSpeed="10.92" duration="134.00" routeLength="982.21" waitingTime="26.00" waitingCount="1" stopTime="0.00" timeLoss="44.79" rerouteNo="0" devices="tripinfo_W1_right_truck.0" vType="truck" speedFactor="0.99" vaporized=""/>
    <tripinfo id="N1_right_truck.0" depart="24.00" departLane="N1_0" departPos="15.10" departSpeed="0.00" departDelay="24.00" arrival="158.00" arrivalLane="J1W_0" arrivalPos="486.40" arrivalSpeed="10.73" duration="134.00" routeLength="966.73" waitingTime="29.00" waitingCount="1" stopTime="0.00" timeLoss="45.54" rerouteNo="0" devices="tripinfo_N1_right_truck.0" vType="truck" speedFactor="0.89" vaporized=""/>
    <tripinfo id="N1_straight_car.1" depart="36.00" departLane="N1_0" departPos="5.10" departSpeed="0.00" departDelay="17.05" arrival="159.00" arrivalLane="J1S_1" arrivalPos="486.40" arrivalSpeed="11.90" duration="123.00" routeLength="994.90" waitingTime="24.00" waitingCount="1" stopTime="0.00" timeLoss="41.16" rerouteNo="0" devices="tripinfo_N1_straight_car.1" vType="car" speedFactor="0.88" vaporized=""/>
    <tripinfo id="S1_straight_motor.1" depart="43.00" departLane="S1_0" departPos="2.60" departSpeed="0.00" departDelay="13.97" arrival="159.00" arrivalLane="J1N_2" arrivalPos="486.40" arrivalSpeed="12.59" duration="116.00" routeLength="997.40" waitingTime="17.00" waitingCount="2" stopTime="0.00" timeLoss="36.70" rerouteNo="0" devices="tripinfo_S1_straight_motor.1" vType="motorcycle" speedFactor="0.91" vaporized=""/>
    <tripinfo id="E1_left_car.4" depart="78.00" departLane="E1_0" departPos="5.10" departSpeed="0.00" departDelay="40.20" arrival="159.00" arrivalLane="J1N_0" arrivalPos="486.40" arrivalSpeed="12.80" duration="81.00" routeLength="976.73" waitingTime="0.00" waitingCount="0" stopTime="0.00" timeLoss="9.37" rerouteNo="0" devices="tripinfo_E1_left_car.4" vType="car" speedFactor="1.02" vaporized=""/>
    <tripinfo id="W1_left_car.4" depart="79.00" departLane="W1_0" departPos="5.10" departSpeed="0.00" departDelay="3.21" arrival="160.00" arrivalLane="J1S_2" arrivalPos="486.40" arrivalSpeed="13.44" duration="81.00" routeLength="976.73" waitingTime="0.00" waitingCount="0" stopTime="0.00" timeLoss="9.11" rerouteNo="0" devices="tripinfo_W1_left_car.4" vType="car" speedFactor="1.06" vaporized=""/>
    <tripinfo id="N1_straight_motor.0" depart="28.00" departLane="N1_0" departPos="2.60" departSpeed="0.00" departDelay="28.00" arrival="161.00" arrivalLane="J1S_0" arrivalPos="486.40" arrivalSpeed="10.17" duration="133.00" routeLength="997.40" waitingTime="26.00" waitingCount="1" stopTime="0.00" timeLoss="45.62" rerouteNo="0" devices="tripinfo_N1_straight_motor.0" vType="motorcycle" speedFactor="0.83" vaporized=""/>
    <tripinfo id="E1_straight_car.4" depart="75.00" departLane="E1_0" departPos="5.10" departSpeed="0.00" departDelay="37.20" arrival="161.00" arrivalLane="J1W_1" arrivalPos="486.40" arrivalSpeed="13.80" duration="86.00" routeLength="994.90" waitingTime="0.00" waitingCount="0" stopTime="0.00" timeLoss="14.16" rerouteNo="0" devices="tripinfo_E1_straight_car.4" vType="car" speedFactor="1.02" vaporized=""/>
    <tripinfo id="E1_straight_motor.3" depart="83.00" departLane="E1_0" departPos="2.60" departSpeed="0.00" departDelay="39.45" arrival="162.00" arrivalLane="J1W_0" arrivalPos="486.40" arrivalSpeed="12.84" duration="79.00" routeLength="997.40" waitingTime="0.00" waitingCount="0" stopTime="0.00" timeLoss="6.75" rerouteNo="0" devices="tripinfo_E1_straight_motor.3" vType="motorcycle" speedFactor="1.00" vaporized=""/>
    <tripinfo id="W1_straight_motor.2" depart="68.00" departLane="W1_0" departPos="2.60" departSpeed="0.00" departDelay="9.94" arrival="162.00" arrivalLane="J1E_0" arrivalPos="486.40" arrivalSpeed="13.35" duration="94.00" routeLength="997.40" waitingTime="3.00" waitingCount="1" stopTime="0.00" timeLoss="19.16" rerouteNo="0" devices="tripinfo_W1_straight_motor.2" vType="motorcycle" speedFactor="0.97" vaporized=""/>
    <tripinfo id="W1_left_motor.2" depart="71.00" departLane="W1_0" departPos="2.60" departSpeed="0.00" departDelay="12.94" arrival="162.00" arrivalLane="J1S_1" arrivalPos="486.40" arrivalSpeed="12.82" duration="91.00" routeLength="979.23" waitingTime="1.00" waitingCount="1" stopTime="0.00" timeLoss="15.62" rerouteNo="0" devices="tripinfo_W1_left_motor.2" vType="motorcycle" speedFactor="0.95" vaporized=""/>
    <tripinfo id="W1_straight_car.4" depart="76.00" departLane="W1_0" departPos="5.10" departSpeed="0.00" departDelay="0.21" arrival="162.00" arrivalLane="J1E_2" arrivalPos="486.40" arrivalSpeed="12.90" duration="86.00" routeLength="994.90" waitingTime="0.00" waitingCount="0" stopTime="0.00" timeLoss="14.38" rerouteNo="0" devices="tripinfo_W1_straight_car.4" vType="car" speedFactor="1.02" vaporized=""/>
    <tripinfo id="W1_left_car.3" depart="63.00" departLane="W1_0" departPos="5.10" departSpeed="0.00" departDelay="6.16" arrival="163.00" arrivalLane="J1S_0" arrivalPos="486.40" arrivalSpeed="12.25" duration="100.00" routeLength="976.73" waitingTime="5.00" waitingCount="1" stopTime="0.00" timeLoss="19.85" rerouteNo="0" devices="tripinfo_W1_left_car.3" vType="car" speedFactor="0.89" vaporized=""/>
    <tripinfo id="S1_right_motor.1" depart="48.00" departLane="S1_0" departPos="2.60" departSpeed="0.00" departDelay="18.97" arrival="164.00" arrivalLane="J1E_0" arrivalPos="486.40" arrivalSpeed="13.63" duration="116.00" routeLength="979.23" waitingTime="24.00" waitingCount="2" stopTime="0.00" timeLoss="46.81" rerouteNo="0" devices="tripinfo_S1_right_motor.1" vType="motorcycle" speedFactor="1.04" vaporized=""/>
    <tripinfo id="N1_left_motor.0" depart="30.00" departLane="N1_0" departPos="2.60" departSpeed="0.00" departDelay="30.00" arrival="165.00" arrivalLane="J1E_0" arrivalPos="486.40" arrivalSpeed="11.11" duration="135.00" routeLength="994.71" waitingTime="30.00" waitingCount="3" stopTime="0.00" timeLoss="51.65" rerouteNo="0" devices="tripinfo_N1_left_motor.0" vType="motorcycle" speedFactor="0.87" vaporized=""/>
    <tripinfo id="S1_right_car.2" depart="58.00" departLane="S1_0" departPos="5.10" departSpeed="0.00" departDelay="20.11" arrival="167.00" arrivalLane="J1E_0" arrivalPos="486.40" arrivalSpeed="12.81" duration="109.00" routeLength="976.73" waitingTime="17.00" waitingCount="2" stopTime="0.00" timeLoss="37.84" rerouteNo="0" devices="tripinfo_S1_right_car.2" vType="car" speedFactor="1.03" vaporized=""/>
    <tripinfo id="W1_right_motor.0" depart="33.00" departLane="W1_0" departPos="2.60" departSpeed="0.00" departDelay="33.00" arrival="168.00" arrivalLane="J1N_1" arrivalPos="486.40" arrivalSpeed="12.14" duration="135.00" routeLength="994.71" waitingTime="33.00" waitingCount="3" stopTime="0.00" timeLoss="57.81" rerouteNo="0" devices="tripinfo_W1_right_motor.0" vType="motorcycle" speedFactor="0.94" vaporized=""/>
    <tripinfo id="N1_straight_motor.1" depart="44.00" departLane="N1_0" departPos="2.60" departSpeed="0.00" departDelay="14.97" arrival="168.00" arrivalLane="J1S_0" arrivalPos="486.40" arrivalSpeed="13.33" duration="124.00" routeLength="997.40" waitingTime="26.00" waitingCount="2" stopTime="0.00" timeLoss="50.96" rerouteNo="0" devices="tripinfo_N1_straight_motor.1" vType="motorcycle" speedFactor="0.99" vaporized=""/>
    <tripinfo id="S1_straight_car.2" depart="51.00" departLane="S1_0" departPos="5.10" departSpeed="0.00" departDelay="13.11" arrival="168.00" arrivalLane="J1N_0" arrivalPos="486.40" arrivalSpeed="13.47" duration="117.00" routeLength="994.90" waitingTime="21.00" waitingCount="3" stopTime="0.00" timeLoss="44.55" rerouteNo="0" devices="tripinfo_S1_straight_car.2" vType="car" speedFactor="1.01" vaporized=""/>
    <tripinfo id="E1_right_motor.0" depart="31.00" departLane="E1_0" departPos="2.60" departSpeed="0.00" departDelay="31.00" arrival="169.00" arrivalLane="J1S_0" arrivalPos="486.40" arrivalSpeed="12.04" duration="138.00" routeLength="994.71" waitingTime="34.00" waitingCount="3" stopTime="0.00" timeLoss="60.27" rerouteNo="0" devices="tripinfo_E1_right_motor.0" vType="motorcycle" speedFactor="0.94" vaporized=""/>
    <tripinfo id="S1_right_car.3" depart="67.00" departLane="S1_0" departPos="5.10" departSpeed="0.00" departDelay="10.16" arrival="169.00" arrivalLane="J1E_0" arrivalPos="486.40" arrivalSpeed="13.76" duration="102.00" routeLength="976.73" waitingTime="7.00" waitingCount="2" stopTime="0.00" timeLoss="30.69" rerouteNo="0" devices="tripinfo_S1_right_car.3" vType="car" speedFactor="1.12" vaporized=""/>