<?xml version="1.0" encoding="UTF-8"?>

<!-- generated on 2025-07-22 20:35:05 by Eclipse SUMO GUI Version 1.23.1
<sumoConfiguration xmlns:xsi="http://www.w3.org/2001/XMLSchema-instance" xsi:noNamespaceSchemaLocation="http://sumo.dlr.de/xsd/sumoConfiguration.xsd">

    <input>
        <net-file value="E:\LET ME COOK\REL301m\dqn_traffic_project\sumo_files\cross.net.xml"/>
        <route-files value="E:\LET ME COOK\REL301m\dqn_traffic_project\sumo_files\cross.rou_kb1.xml"/>
    </input>

    <output>
        <tripinfo-output value="E:\LET ME COOK\REL301m\dqn_traffic_project\sumo_files\tripinfo.xml"/>
    </output>

    <time>
        <begin value="0"/>
        <end value="3600"/>
    </time>

    <processing>
        <time-to-teleport value="-1"/>
    </processing>

    <traci_server>
        <remote-port value="52858"/>
    </traci_server>

</sumoConfiguration>
-->

<tripinfos xmlns:xsi="http://www.w3.org/2001/XMLSchema-instance" xsi:noNamespaceSchemaLocation="http://sumo.dlr.de/xsd/tripinfo_file.xsd">
    <tripinfo id="E1_straight_car.0" depart="0.00" departLane="E1_0" departPos="5.10" departSpeed="0.00" departDelay="0.00" arrival="79.00" arrivalLane="J1W_0" arrivalPos="486.40" arrivalSpeed="13.58" duration="79.00" routeLength="994.90" waitingTime="0.00" waitingCount="0" stopTime="0.00" timeLoss="6.70" rerouteNo="0" devices="tripinfo_E1_straight_car.0" vType="car" speedFactor="1.06" vaporized=""/>
    <tripinfo id="W1_right_car.0" depart="6.00" departLane="W1_0" departPos="5.10" departSpeed="0.00" departDelay="6.00" arrival="86.00" arrivalLane="J1N_0" arrivalPos="486.40" arrivalSpeed="13.58" duration="80.00" routeLength="992.21" waitingTime="0.00" waitingCount="0" stopTime="0.00" timeLoss="7.06" rerouteNo="0" devices="tripinfo_W1_right_car.0" vType="car" speedFactor="1.03" vaporized=""/>
    <tripinfo id="W1_left_car.0" depart="3.00" departLane="W1_0" departPos="5.10" departSpeed="0.00" departDelay="3.00" arrival="87.00" arrivalLane="J1S_0" arrivalPos="486.40" arrivalSpeed="13.00" duration="84.00" routeLength="976.73" waitingTime="0.00" waitingCount="0" stopTime="0.00" timeLoss="12.09" rerouteNo="0" devices="tripinfo_W1_left_car.0" vType="car" speedFactor="1.09" vaporized=""/>
    <tripinfo id="E1_left_car.0" depart="3.00" departLane="E1_0" departPos="5.10" departSpeed="0.00" departDelay="3.00" arrival="89.00" arrivalLane="J1N_0" arrivalPos="486.40" arrivalSpeed="12.90" duration="86.00" routeLength="976.73" waitingTime="0.00" waitingCount="0" stopTime="0.00" timeLoss="9.26" rerouteNo="0" devices="tripinfo_E1_left_car.0" vType="car" speedFactor="0.94" vaporized=""/>
    <tripinfo id="E1_right_car.0" depart="6.00" departLane="E1_0" departPos="5.10" departSpeed="0.00" departDelay="6.00" arrival="89.00" arrivalLane="J1S_1" arrivalPos="486.40" arrivalSpeed="13.58" duration="83.00" routeLength="992.21" waitingTime="0.00" waitingCount="0" stopTime="0.00" timeLoss="10.20" rerouteNo="0" devices="tripinfo_E1_right_car.0" vType="car" speedFactor="1.01" vaporized=""/>
    <tripinfo id="W1_straight_car.0" depart="0.00" departLane="W1_0" departPos="5.10" departSpeed="0.00" departDelay="0.00" arrival="91.00" arrivalLane="J1E_0" arrivalPos="486.40" arrivalSpeed="11.47" duration="91.00" routeLength="994.90" waitingTime="0.00" waitingCount="0" stopTime="0.00" timeLoss="6.92" rerouteNo="0" devices="tripinfo_W1_straight_car.0" vType="car" speedFactor="0.86" vaporized=""/>
    <tripinfo id="N1_right_car.0" depart="6.00" departLane="N1_0" departPos="5.10" departSpeed="0.00" departDelay="6.00" arrival="93.00" arrivalLane="J1W_0" arrivalPos="486.40" arrivalSpeed="12.86" duration="87.00" routeLength="976.73" waitingTime="2.00" waitingCount="1" stopTime="0.00" timeLoss="15.54" rerouteNo="0" devices="tripinfo_N1_right_car.0" vType="car" speedFactor="1.02" vaporized=""/>
    <tripinfo id="S1_straight_car.0" depart="0.00" departLane="S1_0" departPos="5.10" departSpeed="0.00" departDelay="0.00" arrival="93.00" arrivalLane="J1N_0" arrivalPos="486.40" arrivalSpeed="12.00" duration="93.00" routeLength="994.90" waitingTime="5.00" waitingCount="1" stopTime="0.00" timeLoss="17.14" rerouteNo="0" devices="tripinfo_S1_straight_car.0" vType="car" speedFactor="0.95" vaporized=""/>
    <tripinfo id="N1_straight_car.0" depart="0.00" departLane="N1_0" departPos="5.10" departSpeed="0.00" departDelay="0.00" arrival="95.00" arrivalLane="J1S_0" arrivalPos="486.40" arrivalSpeed="12.82" duration="95.00" routeLength="994.90" waitingTime="6.00" waitingCount="1" stopTime="0.00" timeLoss="17.64" rerouteNo="0" devices="tripinfo_N1_straight_car.0" vType="car" speedFactor="0.94" vaporized=""/>
    <tripinfo id="N1_left_car.0" depart="3.00" departLane="N1_0" departPos="5.10" departSpeed="0.00" departDelay="3.00" arrival="95.00" arrivalLane="J1E_1" arrivalPos="486.40" arrivalSpeed="12.88" duration="92.00" routeLength="992.21" waitingTime="8.00" waitingCount="2" stopTime="0.00" timeLoss="20.19" rerouteNo="0" devices="tripinfo_N1_left_car.0" vType="car" speedFactor="1.16" vaporized=""/>
    <tripinfo id="S1_left_car.0" depart="3.00" departLane="S1_0" departPos="5.10" departSpeed="0.00" departDelay="3.00" arrival="96.00" arrivalLane="J1W_0" arrivalPos="486.40" arrivalSpeed="13.74" duration="93.00" routeLength="992.21" waitingTime="7.00" waitingCount="2" stopTime="0.00" timeLoss="20.44" rerouteNo="0" devices="tripinfo_S1_left_car.0" vType="car" speedFactor="1.13" vaporized=""/>
    <tripinfo id="S1_right_car.0" depart="6.00" departLane="S1_0" departPos="5.10" departSpeed="0.00" departDelay="6.00" arrival="96.00" arrivalLane="J1E_0" arrivalPos="486.40" arrivalSpeed="12.24" duration="90.00" routeLength="976.73" waitingTime="1.00" waitingCount="1" stopTime="0.00" timeLoss="13.14" rerouteNo="0" devices="tripinfo_S1_right_car.0" vType="car" speedFactor="0.93" vaporized=""/>
    <tripinfo id="E1_straight_motor.0" depart="26.00" departLane="E1_0" departPos="2.60" departSpeed="0.00" departDelay="26.00" arrival="103.00" arrivalLane="J1W_0" arrivalPos="486.40" arrivalSpeed="13.74" duration="77.00" routeLength="997.40" waitingTime="0.00" waitingCount="0" stopTime="0.00" timeLoss="7.59" rerouteNo="0" devices="tripinfo_E1_straight_motor.0" vType="motorcycle" speedFactor="1.05" vaporized=""/>
    <tripinfo id="E1_straight_truck.0" depart="10.00" departLane="E1_0" departPos="15.10" departSpeed="0.00" departDelay="10.00" arrival="108.00" arrivalLane="J1W_0" arrivalPos="486.40" arrivalSpeed="10.66" duration="98.00" routeLength="984.90" waitingTime="0.00" waitingCount="0" stopTime="0.00" timeLoss="8.88" rerouteNo="0" devices="tripinfo_E1_straight_truck.0" vType="truck" speedFactor="1.08" vaporized=""/>
    <tripinfo id="W1_straight_truck.0" depart="10.00" departLane="W1_0" departPos="15.10" departSpeed="0.00" departDelay="10.00" arrival="108.00" arrivalLane="J1E_0" arrivalPos="486.40" arrivalSpeed="10.88" duration="98.00" routeLength="984.90" waitingTime="0.00" waitingCount="0" stopTime="0.00" timeLoss="9.00" rerouteNo="0" devices="tripinfo_W1_straight_truck.0" vType="truck" speedFactor="1.05" vaporized=""/>
    <tripinfo id="W1_straight_motor.0" depart="28.00" departLane="W1_0" departPos="2.60" departSpeed="0.00" departDelay="28.00" arrival="114.00" arrivalLane="J1E_0" arrivalPos="486.40" arrivalSpeed="12.85" duration="86.00" routeLength="997.40" waitingTime="0.00" waitingCount="0" stopTime="0.00" timeLoss="7.62" rerouteNo="0" devices="tripinfo_W1_straight_motor.0" vType="motorcycle" speedFactor="0.93" vaporized=""/>
    <tripinfo id="W1_straight_car.1" depart="35.00" departLane="W1_0" departPos="5.10" departSpeed="0.00" departDelay="16.05" arrival="114.00" arrivalLane="J1E_1" arrivalPos="486.40" arrivalSpeed="13.21" duration="79.00" routeLength="994.90" waitingTime="0.00" waitingCount="0" stopTime="0.00" timeLoss="6.90" rerouteNo="0" devices="tripinfo_W1_straight_car.1" vType="car" speedFactor="1.09" vaporized=""/>
    <tripinfo id="E1_left_truck.0" depart="16.00" departLane="E1_0" departPos="15.10" departSpeed="0.00" departDelay="16.00" arrival="115.00" arrivalLane="J1N_0" arrivalPos="486.40" arrivalSpeed="10.75" duration="99.00" routeLength="966.73" waitingTime="0.00" waitingCount="0" stopTime="0.00" timeLoss="10.30" rerouteNo="0" devices="tripinfo_E1_left_truck.0" vType="truck" speedFactor="1.03" vaporized=""/>
    <tripinfo id="W1_left_truck.0" depart="17.00" departLane="W1_0" departPos="15.10" departSpeed="0.00" departDelay="17.00" arrival="115.00" arrivalLane="J1S_0" arrivalPos="486.40" arrivalSpeed="10.93" duration="98.00" routeLength="966.73" waitingTime="0.00" waitingCount="0" stopTime="0.00" timeLoss="10.59" rerouteNo="0" devices="tripinfo_W1_left_truck.0" vType="truck" speedFactor="1.12" vaporized=""/>
    <tripinfo id="E1_straight_car.1" depart="34.00" departLane="E1_0" departPos="5.10" departSpeed="0.00" departDelay="24.55" arrival="115.00" arrivalLane="J1W_0" arrivalPos="486.40" arrivalSpeed="13.42" duration="81.00" routeLength="994.90" waitingTime="0.00" waitingCount="0" stopTime="0.00" timeLoss="6.60" rerouteNo="0" devices="tripinfo_E1_straight_car.1" vType="car" speedFactor="0.97" vaporized=""/>
    <tripinfo id="E1_left_car.1" depart="37.00" departLane="E1_0" departPos="5.10" departSpeed="0.00" departDelay="27.55" arrival="117.00" arrivalLane="J1N_1" arrivalPos="486.40" arrivalSpeed="13.86" duration="80.00" routeLength="976.73" waitingTime="0.00" waitingCount="0" stopTime="0.00" timeLoss="8.70" rerouteNo="0" devices="tripinfo_E1_left_car.1" vType="car" speedFactor="1.18" vaporized=""/>
    <tripinfo id="W1_straight_motor.1" depart="44.00" departLane="W1_0" departPos="2.60" departSpeed="0.00" departDelay="14.97" arrival="117.00" arrivalLane="J1E_0" arrivalPos="486.40" arrivalSpeed="14.32" duration="73.00" routeLength="997.40" waitingTime="0.00" waitingCount="0" stopTime="0.00" timeLoss="5.95" rerouteNo="0" devices="tripinfo_W1_straight_motor.1" vType="motorcycle" speedFactor="1.08" vaporized=""/>
    <tripinfo id="W1_left_motor.1" depart="46.00" departLane="W1_0" departPos="2.60" departSpeed="0.00" departDelay="16.97" arrival="118.00" arrivalLane="J1S_1" arrivalPos="486.40" arrivalSpeed="14.98" duration="72.00" routeLength="979.23" waitingTime="0.00" waitingCount="0" stopTime="0.00" timeLoss="8.30" rerouteNo="0" devices="tripinfo_W1_left_motor.1" vType="motorcycle" speedFactor="1.12" vaporized=""/>
    <tripinfo id="E1_left_motor.0" depart="29.00" departLane="E1_0" departPos="2.60" departSpeed="0.00" departDelay="29.00" arrival="119.00" arrivalLane="J1N_0" arrivalPos="486.40" arrivalSpeed="11.40" duration="90.00" routeLength="979.23" waitingTime="0.00" waitingCount="0" stopTime="0.00" timeLoss="9.09" rerouteNo="0" devices="tripinfo_E1_left_motor.0" vType="motorcycle" speedFactor="0.89" vaporized=""/>
    <tripinfo id="W1_left_motor.0" depart="31.00" departLane="W1_0" departPos="2.60" departSpeed="0.00" departDelay="31.00" arrival="121.00" arrivalLane="J1S_0" arrivalPos="486.40" arrivalSpeed="11.33" duration="90.00" routeLength="979.23" waitingTime="0.00" waitingCount="0" stopTime="0.00" timeLoss="8.65" rerouteNo="0" devices="tripinfo_W1_left_motor.0" vType="motorcycle" speedFactor="0.88" vaporized=""/>
    <tripinfo id="W1_left_car.1" depart="38.00" departLane="W1_0" departPos="5.10" departSpeed="0.00" departDelay="19.05" arrival="121.00" arrivalLane="J1S_1" arrivalPos="486.40" arrivalSpeed="13.08" duration="83.00" routeLength="976.73" waitingTime="0.00" waitingCount="0" stopTime="0.00" timeLoss="10.74" rerouteNo="0" devices="tripinfo_W1_left_car.1" vType="car" speedFactor="1.00" vaporized=""/>
    <tripinfo id="W1_right_motor.0" depart="33.00" departLane="W1_0" departPos="2.60" departSpeed="0.00" departDelay="33.00" arrival="123.00" arrivalLane="J1N_0" arrivalPos="486.40" arrivalSpeed="12.95" duration="90.00" routeLength="994.71" waitingTime="0.00" waitingCount="0" stopTime="0.00" timeLoss="13.08" rerouteNo="0" devices="tripinfo_W1_right_motor.0" vType="motorcycle" speedFactor="0.94" vaporized=""/>
    <tripinfo id="W1_right_truck.0" depart="24.00" departLane="W1_0" departPos="15.10" departSpeed="0.00" departDelay="24.00" arrival="126.00" arrivalLane="J1N_0" arrivalPos="486.40" arrivalSpeed="11.03" duration="102.00" routeLength="982.21" waitingTime="0.00" waitingCount="0" stopTime="0.00" timeLoss="12.51" rerouteNo="0" devices="tripinfo_W1_right_truck.0" vType="truck" speedFactor="0.99" vaporized=""/>
    <tripinfo id="E1_left_motor.1" depart="45.00" departLane="E1_0" departPos="2.60" departSpeed="0.00" departDelay="30.48" arrival="127.00" arrivalLane="J1N_1" arrivalPos="486.40" arrivalSpeed="13.26" duration="82.00" routeLength="979.23" waitingTime="0.00" waitingCount="0" stopTime="0.00" timeLoss="12.62" rerouteNo="0" devices="tripinfo_E1_left_motor.1" vType="motorcycle" speedFactor="1.03" vaporized=""/>
    <tripinfo id="E1_straight_car.2" depart="50.00" departLane="E1_0" departPos="5.10" departSpeed="0.00" departDelay="31.10" arrival="129.00" arrivalLane="J1W_0" arrivalPos="486.40" arrivalSpeed="13.20" duration="79.00" routeLength="994.90" waitingTime="0.00" waitingCount="0" stopTime="0.00" timeLoss="6.53" rerouteNo="0" devices="tripinfo_E1_straight_car.2" vType="car" speedFactor="1.09" vaporized=""/>
    <tripinfo id="E1_straight_motor.1" depart="42.00" departLane="E1_0" departPos="2.60" departSpeed="0.00" departDelay="27.48" arrival="131.00" arrivalLane="J1W_0" arrivalPos="486.40" arrivalSpeed="11.86" duration="89.00" routeLength="997.40" waitingTime="0.00" waitingCount="0" stopTime="0.00" timeLoss="8.58" rerouteNo="0" devices="tripinfo_E1_straight_motor.1" vType="motorcycle" speedFactor="0.90" vaporized=""/>
    <tripinfo id="E1_left_car.2" depart="53.00" departLane="E1_0" departPos="5.10" departSpeed="0.00" departDelay="34.10" arrival="132.00" arrivalLane="J1N_0" arrivalPos="486.40" arrivalSpeed="13.60" duration="79.00" routeLength="976.73" waitingTime="0.00" waitingCount="0" stopTime="0.00" timeLoss="7.69" rerouteNo="0" devices="tripinfo_E1_left_car.2" vType="car" speedFactor="1.04" vaporized=""/>
    <tripinfo id="W1_straight_car.2" depart="51.00" departLane="W1_0" departPos="5.10" departSpeed="0.00" departDelay="13.11" arrival="134.00" arrivalLane="J1E_0" arrivalPos="486.40" arrivalSpeed="12.51" duration="83.00" routeLength="994.90" waitingTime="0.00" waitingCount="0" stopTime="0.00" timeLoss="6.64" rerouteNo="0" devices="tripinfo_W1_straight_car.2" vType="car" speedFactor="0.94" vaporized=""/>
    <tripinfo id="W1_left_car.2" depart="54.00" departLane="W1_0" departPos="5.10" departSpeed="0.00" departDelay="16.11" arrival="134.00" arrivalLane="J1S_0" arrivalPos="486.40" arrivalSpeed="13.56" duration="80.00" routeLength="976.73" waitingTime="0.00" waitingCount="0" stopTime="0.00" timeLoss="9.18" rerouteNo="0" devices="tripinfo_W1_left_car.2" vType="car" speedFactor="1.06" vaporized=""/>
    <tripinfo id="W1_right_motor.1" depart="48.00" departLane="W1_0" departPos="2.60" departSpeed="0.00" departDelay="18.97" arrival="137.00" arrivalLane="J1N_1" arrivalPos="486.40" arrivalSpeed="12.90" duration="89.00" routeLength="994.71" waitingTime="4.00" waitingCount="1" stopTime="0.00" timeLoss="17.21" rerouteNo="0" devices="tripinfo_W1_right_motor.1" vType="motorcycle" speedFactor="1.02" vaporized=""/>
    <tripinfo id="W1_right_car.1" depart="41.00" departLane="W1_0" departPos="5.10" departSpeed="0.00" departDelay="22.05" arrival="138.00" arrivalLane="J1N_0" arrivalPos="486.40" arrivalSpeed="11.50" duration="97.00" routeLength="992.21" waitingTime="5.00" waitingCount="1" stopTime="0.00" timeLoss="16.25" rerouteNo="0" devices="tripinfo_W1_right_car.1" vType="car" speedFactor="0.90" vaporized=""/>
    <tripinfo id="S1_straight_motor.0" depart="27.00" departLane="S1_0" departPos="2.60" departSpeed="0.00" departDelay="27.00" arrival="139.00" arrivalLane="J1N_1" arrivalPos="486.40" arrivalSpeed="15.07" duration="112.00" routeLength="997.40" waitingTime="33.00" waitingCount="1" stopTime="0.00" timeLoss="50.21" rerouteNo="0" devices="tripinfo_S1_straight_motor.0" vType="motorcycle" speedFactor="1.17" vaporized=""/>
    <tripinfo id="N1_straight_car.1" depart="36.00" departLane="N1_0" departPos="5.10" departSpeed="0.00" departDelay="17.05" arrival="148.00" arrivalLane="J1S_1" arrivalPos="486.40" arrivalSpeed="12.08" duration="112.00" routeLength="994.90" waitingTime="18.00" waitingCount="1" stopTime="0.00" timeLoss="30.06" rerouteNo="0" devices="tripinfo_N1_straight_car.1" vType="car" speedFactor="0.88" vaporized=""/>
    <tripinfo id="E1_right_truck.0" depart="23.00" departLane="E1_0" departPos="15.10" departSpeed="0.00" departDelay="23.00" arrival="150.00" arrivalLane="J1S_1" arrivalPos="486.40" arrivalSpeed="11.04" duration="127.00" routeLength="982.21" waitingTime="20.00" waitingCount="1" stopTime="0.00" timeLoss="37.46" rerouteNo="0" devices="tripinfo_E1_right_truck.0" vType="truck" speedFactor="0.83" vaporized=""/>
    <tripinfo id="N1_straight_motor.0" depart="28.00" departLane="N1_0" departPos="2.60" departSpeed="0.00" departDelay="28.00" arrival="150.00" arrivalLane="J1S_0" arrivalPos="486.40" arrivalSpeed="10.77" duration="122.00" routeLength="997.40" waitingTime="22.00" waitingCount="1" stopTime="0.00" timeLoss="34.31" rerouteNo="0" devices="tripinfo_N1_straight_motor.0" vType="motorcycle" speedFactor="0.83" vaporized=""/>
    <tripinfo id="E1_left_car.3" depart="62.00" departLane="E1_0" departPos="5.10" departSpeed="0.00" departDelay="33.65" arrival="150.00" arrivalLane="J1N_0" arrivalPos="486.40" arrivalSpeed="13.30" duration="88.00" routeLength="976.73" waitingTime="3.00" waitingCount="1" stopTime="0.00" timeLoss="16.24" rerouteNo="0" devices="tripinfo_E1_left_car.3" vType="car" speedFactor="1.00" vaporized=""/>
    <tripinfo id="E1_left_motor.2" depart="70.00" departLane="E1_0" departPos="2.60" departSpeed="0.00" departDelay="40.97" arrival="152.00" arrivalLane="J1N_1" arrivalPos="486.40" arrivalSpeed="13.82" duration="82.00" routeLength="979.23" waitingTime="0.00" waitingCount="0" stopTime="0.00" timeLoss="12.10" rerouteNo="0" devices="tripinfo_E1_left_motor.2" vType="motorcycle" speedFactor="1.02" vaporized=""/>
    <tripinfo id="N1_straight_truck.0" depart="10.00" departLane="N1_0" departPos="15.10" departSpeed="0.00" departDelay="10.00" arrival="154.00" arrivalLane="J1S_0" arrivalPos="486.40" arrivalSpeed="10.96" duration="144.00" routeLength="984.90" waitingTime="36.00" waitingCount="1" stopTime="0.00" timeLoss="54.54" rerouteNo="0" devices="tripinfo_N1_straight_truck.0" vType="truck" speedFactor="1.01" vaporized=""/>
    <tripinfo id="S1_straight_truck.0" depart="10.00" departLane="S1_0" departPos="15.10" departSpeed="0.00" departDelay="10.00" arrival="154.00" arrivalLane="J1N_0" arrivalPos="486.40" arrivalSpeed="10.99" duration="144.00" routeLength="984.90" waitingTime="37.00" waitingCount="1" stopTime="0.00" timeLoss="54.95" rerouteNo="0" devices="tripinfo_S1_straight_truck.0" vType="truck" speedFactor="1.18" vaporized=""/>
    <tripinfo id="E1_straight_motor.2" depart="67.00" departLane="E1_0" departPos="2.60" departSpeed="0.00" departDelay="37.97" arrival="155.00" arrivalLane="J1W_2" arrivalPos="486.40" arrivalSpeed="15.40" duration="88.00" routeLength="997.40" waitingTime="3.00" waitingCount="1" stopTime="0.00" timeLoss="24.82" rerouteNo="0" devices="tripinfo_E1_straight_motor.2" vType="motorcycle" speedFactor="1.14" vaporized=""/>
    <tripinfo id="W1_straight_car.3" depart="60.00" departLane="W1_0" departPos="5.10" departSpeed="0.00" departDelay="3.16" arrival="155.00" arrivalLane="J1E_0" arrivalPos="486.40" arrivalSpeed="13.44" duration="95.00" routeLength="994.90" waitingTime="1.00" waitingCount="1" stopTime="0.00" timeLoss="23.18" rerouteNo="0" devices="tripinfo_W1_straight_car.3" vType="car" speedFactor="1.02" vaporized=""/>
    <tripinfo id="E1_straight_car.3" depart="59.00" departLane="E1_0" departPos="5.10" departSpeed="0.00" departDelay="30.65" arrival="158.00" arrivalLane="J1W_0" arrivalPos="486.40" arrivalSpeed="13.57" duration="99.00" routeLength="994.90" waitingTime="7.00" waitingCount="2" stopTime="0.00" timeLoss="26.91" rerouteNo="0" devices="tripinfo_E1_straight_car.3" vType="car" speedFactor="1.00" vaporized=""/>
    <tripinfo id="W1_straight_motor.2" depart="69.00" departLane="W1_0" departPos="2.60" departSpeed="0.00" departDelay="10.94" arrival="160.00" arrivalLane="J1E_0" arrivalPos="486.40" arrivalSpeed="12.79" duration="91.00" routeLength="997.40" waitingTime="3.00" waitingCount="1" stopTime="0.00" timeLoss="16.40" rerouteNo="0" devices="tripinfo_W1_straight_motor.2" vType="motorcycle" speedFactor="0.97" vaporized=""/>
    <tripinfo id="N1_left_truck.0" depart="17.00" departLane="N1_0" departPos="15.10" departSpeed="0.00" departDelay="17.00" arrival="162.00" arrivalLane="J1E_0" arrivalPos="486.40" arrivalSpeed="10.79" duration="145.00" routeLength="982.21" waitingTime="34.00" waitingCount="2" stopTime="0.00" timeLoss="56.19" rerouteNo="0" devices="tripinfo_N1_left_truck.0" vType="truck" speedFactor="0.97" vaporized=""/>
    <tripinfo id="S1_left_truck.0" depart="16.00" departLane="S1_0" departPos="15.10" departSpeed="0.00" departDelay="16.00" arrival="162.00" arrivalLane="J1W_0" arrivalPos="486.40" arrivalSpeed="10.70" duration="146.00" routeLength="982.21" waitingTime="35.00" waitingCount="2" stopTime="0.00" timeLoss="56.95" rerouteNo="0" devices="tripinfo_S1_left_truck.0" vType="truck" speedFactor="1.15" vaporized=""/>
    <tripinfo id="E1_right_motor.0" depart="31.00" departLane="E1_0" departPos="2.60" departSpeed="0.00" departDelay="31.00" arrival="163.00" arrivalLane="J1S_1" arrivalPos="486.40" arrivalSpeed="13.02" duration="132.00" routeLength="994.71" waitingTime="30.00" waitingCount="2" stopTime="0.00" timeLoss="54.75" rerouteNo="0" devices="tripinfo_E1_right_motor.0" vType="motorcycle" speedFactor="0.94" vaporized=""/>
    <tripinfo id="S1_straight_car.1" depart="35.00" departLane="S1_0" departPos="5.10" departSpeed="0.00" departDelay="16.05" arrival="163.00" arrivalLane="J1N_0" arrivalPos="486.40" arrivalSpeed="13.70" duration="128.00" routeLength="994.90" waitingTime="32.00" waitingCount="2" stopTime="0.00" timeLoss="55.47" rerouteNo="0" devices="tripinfo_S1_straight_car.1" vType="car" speedFactor="1.17" vaporized=""/>
    <tripinfo id="N1_straight_motor.1" depart="44.00" departLane="N1_0" departPos="2.60" departSpeed="0.00" departDelay="14.97" arrival="163.00" arrivalLane="J1S_0" arrivalPos="486.40" arrivalSpeed="12.86" duration="119.00" routeLength="997.40" waitingTime="20.00" waitingCount="2" stopTime="0.00" timeLoss="46.14" rerouteNo="0" devices="tripinfo_N1_straight_motor.1" vType="motorcycle" speedFactor="0.99" vaporized=""/>
    <tripinfo id="N1_straight_car.2" depart="53.00" departLane="N1_0" departPos="5.10" departSpeed="0.00" departDelay="15.11" arrival="164.00" arrivalLane="J1S_2" arrivalPos="486.40" arrivalSpeed="12.52" duration="111.00" routeLength="994.90" waitingTime="14.00" waitingCount="2" stopTime="0.00" timeLoss="38.19" rerouteNo="0" devices="tripinfo_N1_straight_car.2" vType="car" speedFactor="0.98" vaporized=""/>
    <tripinfo id="N1_right_motor.0" depart="33.00" departLane="N1_0" departPos="2.60" departSpeed="0.00" departDelay="33.00" arrival="166.00" arrivalLane="J1W_1" arrivalPos="486.40" arrivalSpeed="12.38" duration="133.00" routeLength="979.23" waitingTime="30.00" waitingCount="2" stopTime="0.00" timeLoss="54.66" rerouteNo="0" devices="tripinfo_N1_right_motor.0" vType="motorcycle" speedFactor="0.92" vaporized=""/>
    <tripinfo id="N1_right_truck.0" depart="24.00" departLane="N1_0" departPos="15.10" departSpeed="0.00" departDelay="24.00" arrival="167.00" arrivalLane="J1W_0" arrivalPos="486.40" arrivalSpeed="10.73" duration="143.00" routeLength="966.73" waitingTime="31.00" waitingCount="2" stopTime="0.00" timeLoss="55.31" rerouteNo="0" devices="tripinfo_N1_right_truck.0" vType="truck" speedFactor="0.89" vaporized=""/>
    <tripinfo id="S1_left_motor.0" depart="30.00" departLane="S1_0" departPos="2.60" departSpeed="0.00" departDelay="30.00" arrival="169.00" arrivalLane="J1W_1" arrivalPos="486.40" arrivalSpeed="12.66" duration="139.00" routeLength="994.71" waitingTime="40.00" waitingCount="3" stopTime="0.00" timeLoss="66.06" rerouteNo="0" devices="tripinfo_S1_left_motor.0" vType="motorcycle" speedFactor="0.99" vaporized=""/>
    <tripinfo id="S1_straight_motor.1" depart="43.00" departLane="S1_0" departPos="2.60" departSpeed="0.00" departDelay="13.97" arrival="169.00" arrivalLane="J1N_0" arrivalPos="486.40" arrivalSpeed="11.39" duration="126.00" routeLength="997.40" waitingTime="21.00" waitingCount="2" stopTime="0.00" timeLoss="46.06" rerouteNo="0" devices="tripinfo_S1_straight_motor.1" vType="motorcycle" speedFactor="0.91" vaporized=""/>
    <tripinfo id="E1_straight_car.4" depart="75.00" departLane="E1_0" departPos="5.10" departSpeed="0.00" departDelay="37.20" arrival="170.00" arrivalLane="J1W_0" arrivalPos="486.40" arrivalSpeed="13.63" duration="95.00" routeLength="994.90" waitingTime="7.00" waitingCount="1" stopTime="0.00" timeLoss="22.63" rerouteNo="0" devices="tripinfo_E1_straight_car.4" vType="car" speedFactor="1.02" vaporized=""/>
    <tripinfo id="E1_left_car.4" depart="78.00" departLane="E1_0" departPos="5.10" departSpeed="0.00" departDelay="40.20" arrival="170.00" arrivalLane="J1N_1" arrivalPos="486.40" arrivalSpeed="12.62" duration="92.00" routeLength="976.73" waitingTime="5.00" waitingCount="1" stopTime="0.00" timeLoss="20.41" rerouteNo="0" devices="tripinfo_E1_left_car.4" vType="car" speedFactor="1.02" vaporized=""/>
    <tripinfo id="W1_left_car.3" depart="63.00" departLane="W1_0" departPos="5.10" departSpeed="0.00" departDelay="6.16" arrival="170.00" arrivalLane="J1S_0" arrivalPos="486.40" arrivalSpeed="12.33" duration="107.00" routeLength="976.73" waitingTime="7.00" waitingCount="1" stopTime="0.00" timeLoss="27.56" rerouteNo="0" devices="tripinfo_W1_left_car.3" vType="car" speedFactor="0.89" vaporized=""/>
    <tripinfo id="W1_left_motor.2" depart="71.00" departLane="W1_0" departPos="2.60" departSpeed="0.00" departDelay="12.94" arrival="170.00" arrivalLane="J1S_1" arrivalPos="486.40" arrivalSpeed="12.61" duration="99.00" routeLength="979.23" waitingTime="6.00" waitingCount="1" stopTime="0.00" timeLoss="23.98" rerouteNo="0" devices="tripinfo_W1_left_motor.2" vType="motorcycle" speedFactor="0.95" vaporized=""/>
    <tripinfo id="S1_right_truck.0" depart="23.00" departLane="S1_0" departPos="15.10" departSpeed="0.00" departDelay="23.00" arrival="171.00" arrivalLane="J1E_0" arrivalPos="486.40" arrivalSpeed="10.66" duration="148.00" routeLength="966.73" waitingTime="32.00" waitingCount="3" stopTime="0.00" timeLoss="59.57" rerouteNo="0" devices="tripinfo_S1_right_truck.0" vType="truck" speedFactor="1.01" vaporized=""/>
    <tripinfo id="E1_straight_motor.3" depart="83.00" departLane="E1_0" departPos="2.60" departSpeed="0.00" departDelay="39.45" arrival="171.00" arrivalLane="J1W_1" arrivalPos="486.40" arrivalSpeed="13.44" duration="88.00" routeLength="997.40" waitingTime="0.00" waitingCount="0" stopTime="0.00" timeLoss="15.18" rerouteNo="0" devices="tripinfo_E1_straight_motor.3" vType="motorcycle" speedFactor="1.00" vaporized=""/>
    <tripinfo id="E1_left_motor.3" depart="86.00" departLane="E1_0" departPos="2.60" departSpeed="0.00" departDelay="42.45" arrival="172.00" arrivalLane="J1N_0" arrivalPos="486.40" arrivalSpeed="13.19" duration="86.00" routeLength="979.23" waitingTime="0.00" waitingCount="0" stopTime="0.00" timeLoss="15.45" rerouteNo="0" devices="tripinfo_E1_left_motor.3" vType="motorcycle" speedFactor="1.02" vaporized=""/>
    <tripinfo id="E1_straight_car.5" depart="91.00" departLane="E1_0" departPos="5.10" departSpeed="0.00" departDelay="43.76" arrival="172.00" arrivalLane="J1W_0" arrivalPos="486.40" arrivalSpeed="13.34" duration="81.00" routeLength="994.90" waitingTime="0.00" waitingCount="0" stopTime="0.00" timeLoss="8.72" rerouteNo="0" devices="tripinfo_E1_straight_car.5" vType="car" speedFactor="1.15" vaporized=""/>
    <tripinfo id="W1_left_car.4" depart="79.00" departLane="W1_0" departPos="5.10" departSpeed="0.00" departDelay="3.21" arrival="172.00" arrivalLane="J1S_1" arrivalPos="486.40" arrivalSpeed="12.89" duration="93.00" routeLength="976.73" waitingTime="5.00" waitingCount="1" stopTime="0.00" timeLoss="21.36" rerouteNo="0" devices="tripinfo_W1_left_car.4" vType="car" speedFactor="1.06" vaporized=""/>
    <tripinfo id="W1_straight_car.4" depart="76.00" departLane="W1_0" departPos="5.10" departSpeed="0.00" departDelay="0.21" arrival="173.00" arrivalLane="J1E_0" arrivalPos="486.40" arrivalSpeed="12.68" duration="97.00" routeLength="994.90" waitingTime="7.00" waitingCount="2" stopTime="0.00" timeLoss="25.07" rerouteNo="0" devices="tripinfo_W1_straight_car.4" vType="car" speedFactor="1.02" vaporized=""/>
    <tripinfo id="N1_left_motor.0" depart="30.00" departLane="N1_0" departPos="2.60" departSpeed="0.00" departDelay="30.00" arrival="174.00" arrivalLane="J1E_1" arrivalPos="486.40" arrivalSpeed="12.01" duration="144.00" routeLength="994.71" waitingTime="37.00" waitingCount="4" stopTime="0.00" timeLoss="60.61" rerouteNo="0" devices="tripinfo_N1_left_motor.0" vType="motorcycle" speedFactor="0.87" vaporized=""/>
    <tripinfo id="W1_straight_motor.3" depart="88.00" departLane="W1_0" departPos="2.60" departSpeed="0.00" departDelay="0.90" arrival="174.00" arrivalLane="J1E_2" arrivalPos="486.40" arrivalSpeed="13.19" duration="86.00" routeLength="997.40" waitingTime="0.00" waitingCount="0" stopTime="0.00" timeLoss="14.00" rerouteNo="0" devices="tripinfo_W1_straight_motor.3" vType="motorcycle" speedFactor="1.00" vaporized=""/>